<?xml version="1.0" encoding="iso-8859-1"?>

<configuration xmlns:xsi="http://www.w3.org/2001/XMLSchema-instance" xsi:noNamespaceSchemaLocation="http://sumo.sf.net/xsd/sumoConfiguration.xsd">

    <input>
        <net-file value="twinT.net.xml"/>
        <route-files value="twinT.rou.xml"/>
	<additional-files value="twinT.add.xml"/>
    </input>    
    
    <output>
        <summary-output value="twinT.out.xml"/>
    </output>

</configuration>
